148
Energy=-2877649.17496 Properties=species:S:1:pos:R:3:forces:R:3
C  6.90571  -1.79603   2.33941   0.132467   3.37748    0.302392   
C  6.04082  -1.06339   1.5057   -0.0982313 -0.863031  -0.430824   
C  6.12247   0.34507   1.50602   0.272668   0.63737   -0.221214   
C  7.06626   0.97212   2.34018  -0.336877  -3.19223    0.292814   
C  7.92607   0.23321   3.15312  -2.12309   -1.46303   -1.89478    
C  7.84521  -1.16204   3.15271  -1.98353    1.78926   -1.91166    
C  5.21868   1.21718   0.70841   0.450731  -0.302339   1.03367    
C  4.45562   2.17277   1.3838    0.357189   0.475351  -3.63903    
C  3.71002   3.16415   0.727809  0.483546   1.07356   -1.57836    
C  3.71002   3.16415  -0.727809 -0.704451   1.0186     1.62314    
C  4.45562   2.17277  -1.3838    0.231961   0.0556165  3.61945    
C  5.21868   1.21718  -0.70841   0.511036  -0.346405  -1.02911    
C  2.92506   4.15311   1.47955   1.02124   -1.25033    1.32235    
C  2.39597   5.17208   0.713172  1.28752    1.00693   -0.0368789  
C  2.39597   5.17208  -0.713172  0.742836   0.295285   0.390187   
C  2.92506   4.15311  -1.47955   0.395108  -1.86931   -0.744491   
C  1.3151    5.97187  -1.14616   0.226615   1.09467   -1.60713    
C  0.641871  6.45564   0        -1.20141    1.71295    0.137929   
C  1.3151    5.97187   1.14616  -0.203454   0.141644   1.26836    
C -0.703578  6.80014   0        -1.18511    2.72517   -0.349914   
C -1.31136   6.82427  -1.31439   3.85673    0.239801   1.28619    
C -0.645041  6.35875  -2.44656   2.9113     0.359096   2.95997    
C  0.694498  5.81375  -2.37982  -1.53301    0.254382  -0.619734   
C  1.37566   4.90528  -3.26986  -0.0897742 -0.329499   3.51713    
C  2.43719   4.10925  -2.83662  -1.55098    1.3621     3.42696    
C -1.31136   6.82427   1.31439   4.42766    2.30539   -1.50341    
C -0.645041  6.35875   2.44656   4.50659    2.3089    -1.74146    
C  0.694498  5.81375   2.37982   0.269358   1.49248    2.18503    
C  1.37566   4.90528   3.26986   1.9504     2.78328   -3.02447    
C  2.43719   4.10925   2.83662   0.311553   3.66022   -2.53093    
C  6.12247   0.34507  -1.50602   0.280737   0.667306   0.238508   
C  6.04082  -1.06339  -1.5057   -0.0944047 -0.883197   0.431843   
C  6.90571  -1.79603  -2.33941   0.139753   3.37578   -0.313047   
C  7.84521  -1.16204  -3.15271  -1.98586    1.7843     1.90684    
C  7.92607   0.23321  -3.15312  -2.12763   -1.45398    1.88774    
C  7.06626   0.97212  -2.34018  -0.329932  -3.20491   -0.303867   
C  5.04148  -1.82426   0.708441  0.39545    0.084301   1.0332     
C  4.17152  -2.68357   1.38394   0.76497   -0.138719  -3.75817    
C  3.31296  -3.57829   0.727291 -1.53694   -0.467809  -1.17193    
C  3.31296  -3.57829  -0.727291 -1.66654   -0.179356   1.34204    
C  4.17152  -2.68357  -1.38394   0.887301  -0.161952   3.77538    
C  5.04148  -1.82426  -0.708441  0.430754   0.0792892 -1.03374    
C  2.40408  -4.45524  -1.47787  -0.0139552  1.71475   -0.995554   
C  1.75156  -5.40258  -0.713828  1.14468   -0.0466334  0.0858712  
C  1.75156  -5.40258   0.713828  1.12301   -0.0470271 -0.100726   
C  2.40408  -4.45524   1.47787   0.330007   1.76308    0.828751   
C  0.578153 -6.05993   1.14701  -0.355313  -0.432703   1.5758     
C -0.15065  -6.45654   0        -1.32157   -0.694601  -0.000125118
C  0.578153 -6.05993  -1.14701  -0.326557  -0.46021   -1.5278     
C  1.91731  -4.33365  -2.83061  -1.56513   -1.17831    4.12123    
C  0.761698 -4.98433  -3.26337  -0.512374  -0.163628   4.28007    
C -0.02238  -5.8091   -2.37621  -1.2734     1.24508   -1.01545    
C -1.42354  -6.16581  -2.44251   2.68171    0.882165   2.89931    
C -2.14239  -6.54132  -1.31102   3.45876    0.664407   1.80604    
C -1.53106  -6.60927   0        -2.26079    0.609187  -0.0375569  
C  1.91731  -4.33365   2.83061  -1.55461   -1.20976   -3.97543    
C  0.761698 -4.98433   3.26337  -0.549756  -0.21683   -4.15405    
C -0.02238  -5.8091    2.37621  -1.2745     1.05489    1.00717    
C -1.42354  -6.16581   2.44251   2.68048    0.692523  -2.93249    
C -2.14239  -6.54132   1.31102   3.51072    0.724072  -1.66161    
H  0.988223  4.74441  -4.27449  -0.836432  -0.106869  -2.69437    
H  2.82463   3.3598   -3.52389   0.863282  -1.45532   -2.10608    
H  2.82463   3.3598    3.52389   0.871468  -1.61508    2.23035    
H  0.988223  4.74441   4.27449  -0.828901  -0.208523   2.58139    
H -1.19454   6.31197   3.38565  -1.29672    0.0821566  2.30652    
H -2.35404   7.12193   1.41556  -2.34498    0.94851    0.228577   
H -2.35404   7.12193  -1.41556  -2.43683    0.871442  -0.219057   
H -1.19454   6.31197  -3.38565  -1.21178    0.0733743 -2.17838    
H -1.96347  -6.0367   -3.37907  -1.33245    0.044749  -2.55973    
H -3.21667  -6.69176  -1.40716  -2.54958   -0.641365  -0.224867   
H -3.21667  -6.69176   1.40716  -2.57518   -0.611035   0.238185   
H -1.96347  -6.0367    3.37907  -1.3431     0.124711   2.51542    
H  0.39006  -4.76625   4.26316  -0.907328   0.371174   2.74977    
H  2.39354  -3.63285   3.51303   1.13586    1.6179     2.28786    
H  2.39354  -3.63285  -3.51303   1.15133    1.53564   -2.25622    
H  0.39006  -4.76625  -4.26316  -0.871442   0.291149  -2.69163    
H  4.47498   2.17041   2.47123   0.421637  -0.497219   3.25013    
H  4.47498   2.17041  -2.47123   0.414628  -0.477869  -3.1766     
H  4.19101  -2.6837    2.47137   0.42311    0.445318   3.22948    
H  4.19101  -2.6837   -2.47137   0.461605   0.422202  -3.21966    
H  7.12161   2.05874  -2.33571   0.34142    2.82256    0.114543   
H  8.65438   0.744108 -3.77975   1.42634    1.00152   -1.21606    
H  8.50949  -1.75407  -3.77909   1.31656   -1.14522   -1.23037    
H  6.83475  -2.88178  -2.33438  -0.0598531 -2.75539    0.165295   
H  7.12161   2.05874   2.33571   0.333694   2.82158   -0.11485    
H  8.65438   0.744108  3.77975   1.42289    1.00157    1.2157     
H  8.50949  -1.75407   3.77909   1.31309   -1.14477    1.23067    
H  6.83475  -2.88178   2.33438  -0.0616014 -2.75402   -0.162475   
C -2.45745   1.76294   3.71732   0.0560254 -3.38183    2.26626    
C -3.63324   0.908682  3.71732   2.87875   -0.832563   1.1602     
C -3.18413  -0.47355   3.71732   1.76692    2.4393     1.48461    
C -1.73077  -0.47355   3.71732  -1.85482    2.43227    1.47891    
C -1.28165   0.908682  3.71732  -3.35307   -0.709751   1.92427    
C -0.1527    1.2755    2.98369   2.04155    1.80946   -2.63488    
C  0.573983  0.27531   2.21961   1.38384    2.63277   -0.821112   
C  0.14276  -1.05185   2.21961  -0.777158  -3.36092   -0.724587   
C -1.03304  -1.43389   2.98369   1.34574   -2.47529   -2.2227     
C -1.75972  -2.43408   2.21961   3.35345    0.219144  -0.647846   
C -3.15517  -2.43408   2.21961  -2.76791    0.112752   0.0942392  
C -3.88185  -1.43389   2.98369  -1.33002   -2.12935   -2.29155    
C -5.05765  -1.05185   2.21961   1.21866   -2.72258   -0.195714   
C -5.48889   0.27531   2.21961  -0.482464   3.11722   -0.147819   
C -4.76219   1.2755    2.98369  -2.50963    0.551363  -1.94138    
C -4.76219   2.5118    2.21961  -2.70568   -2.19107   -0.245103   
C -5.48889   2.27569   0.983312 -0.826515  -1.74562    2.96399    
C -5.938     0.893458  0.983312  0.463774   1.76549    2.58153    
C -5.938     0.15982  -0.20374   0.496627  -1.64118   -2.50336    
C -5.48889  -1.2224   -0.20374  -0.790772   1.61955   -2.5947     
C -5.05765  -1.81593   0.983312  1.54628   -1.13838    2.58219    
C -3.88185  -2.67019   0.983312 -1.56055    0.329018   2.44616    
C -3.18413  -2.8969   -0.20374   2.39544   -0.357403  -2.41126    
C -1.73077  -2.8969   -0.20374  -0.960627  -0.537788  -2.51039    
C -1.03304  -2.67019   0.983312  1.98732    1.00617    2.04111    
C  0.14276  -1.81593   0.983312 -1.67173   -1.93591    2.27441    
C  0.573983 -1.2224   -0.20374   0.885273   1.87022   -2.30275    
C  1.02309   0.15982  -0.20374   0.417798  -2.11202   -2.57667    
C  1.02309   0.893458  0.983312 -0.539238   2.40002    2.03318    
C  0.573983  2.27569   0.983312 -1.42007   -3.64052    0.338434   
C  0.14276   2.86921  -0.20374  -3.0628    -0.729591  -2.11926    
C  0.14276   2.10513  -1.44004  -2.14118    2.17489    1.63165    
C  0.573983  0.777981 -1.44004   1.60072   -2.31217    0.582598   
C -0.1527   -0.22221  -2.20411   2.32294   -0.959858   2.28376    
C -0.1527   -1.45852  -1.44004   2.31281    1.45259    0.60118    
C -1.28165  -2.27874  -1.44004  -2.68422   -2.20048    0.630602   
C -2.45745  -1.89671  -2.20411   0.682957  -2.97653    2.20419    
C -3.63324  -2.27874  -1.44004   2.66172   -1.79343    0.356873   
C -4.76219  -1.45852  -1.44004  -2.32107    2.28899    0.109251   
C -4.76219  -0.22221  -2.20411  -2.67814   -0.884285   1.98017    
C -5.48889   0.777981 -1.44004  -0.502981  -3.18598    0.154484   
C -5.05765   2.10513  -1.44004   1.26679    2.65093    0.232525   
C -5.05765   2.86921  -0.20374   1.6381     1.25208   -2.59826    
C -3.88185   3.72347  -0.20374  -1.52099   -0.643841  -2.84767    
C -3.15517   3.48736  -1.44004  -3.28196   -0.398164  -1.15577    
C -3.88185   2.48717  -2.20411  -0.827174   2.83371    2.89717    
C -3.18413   1.52683  -2.93775   1.94283   -2.85026   -2.14441    
C -3.63324   0.1446   -2.93775   2.82135    1.4264    -1.02512    
C -2.45745  -0.709658 -2.93775   0.320729   2.84879   -1.42008    
C -1.28165   0.1446   -2.93775  -2.80754    0.512274  -1.89782    
C -1.73077   1.52683  -2.93775  -2.24438   -2.18056   -1.41849    
C -1.03304   2.48717  -2.20411   1.63258    1.99728    2.36492    
C -1.75972   3.48736  -1.44004   2.54692   -2.13204    2.38324    
C -1.03304   3.72347  -0.20374   0.728215  -3.72495   -1.15602    
C -1.73077   3.95018   0.983312 -2.46234   -6.50037    0.625895   
C -3.18413   3.95018   0.983312  2.21368   -0.888164   2.56378    
C -3.63324   3.33203   2.21961   2.54371    1.86791   -0.72613    
C -2.45745   2.94999   2.98369   1.40496    2.80454   -2.87462    
C -1.28165   3.33203   2.21961  -5.33194   -2.89996   -2.302      
C -0.1527    2.5118    2.21961  -1.11788   -4.26009   -1.8483 